# vtk DataFile Version 3.0
vtk output
ASCII
DATASET POLYDATA
POINTS 10 float
-0.5403124237432848 -1.0 -0.23224993899462787
0.0 -1.0 0.2
0.5403124237432848 -1.0 -0.23224993899462787
-0.35825756949558396 -0.5 -0.18660605559646717
0.0 -0.5 0.1
0.35825756949558396 -0.5 -0.18660605559646717
0.0 0.0 0.0
0.0 -1.0 -0.42
0.0 -0.5 -0.0975
POLYGONS 6 24
3 0 3 1
3 1 3 4
3 1 4 2
3 2 4 5
3 3 6 4
3 4 6 5
CELL_DATA 6
SCALARS Components int
LOOKUP_TABLE default
           1
           1
           1
           1
           1
           1
