# vtk DataFile Version 3.0
vtk output
ASCII
DATASET POLYDATA
POINTS 13 float
-0.5403124237432848 -1.0 -0.23224993899462787
-0.27015621187164235 -1.0 -0.016124969497313874
0.0 -1.0 0.2
0.27015621187164235 -1.0 -0.016124969497313874
0.5403124237432848 -1.0 -0.23224993899462787
-0.35825756949558396 -0.5 -0.18660605559646717
0.0 -0.5 0.1
0.35825756949558396 -0.5 -0.18660605559646717
0.0 0.0 0.0
-0.27015621187164235 -1.0 -0.5239260367385757
0.0 -1.0 -0.42
0.27015621187164235 -1.0 -0.5239260367385757
0.0 -0.5 -0.0975
POLYGONS 16 64
3 5 0 1
3 5 1 6
3 6 1 2
3 6 2 7
3 7 2 3
3 7 3 4
3 8 5 6
3 8 6 7
3 5 0 9
3 5 9 12
3 12 9 19
3 12 10 7
3 7 10 20
3 7 11 4
3 8 5 12
3 8 12 7
CELL_DATA 16
SCALARS Components int
LOOKUP_TABLE default
           1
           1
           1
           1
           1
           1
           1
           1
           1
           1
           1
           1
           1
           1
           1
           1
