# vtk DataFile Version 3.0
vtk output
ASCII
DATASET POLYDATA
POINTS 17 float
-0.5403124237432848 -1.0 -0.23224993899462787
-0.27015621187164235 -1.0 -0.016124969497313874
0.0 -1.0 0.2
0.27015621187164235 -1.0 -0.016124969497313874
0.5403124237432848 -1.0 -0.23224993899462787
-0.35825756949558396 -0.5 -0.18660605559646717
0.0 -0.5 0.1
0.35825756949558396 -0.5 -0.18660605559646717
0.35825756949558396 -0.5 -0.18660605559646717
0.0 0.0 0.0
0.0 0.0 0.0
-0.27015621187164235 -1.0 -0.5239260367385757
0.0 -1.0 -0.42
0.27015621187164235 -1.0 -0.5239260367385757
0.0 -0.5 -0.0975
0.35825756949558396 -0.5 -0.1866060555964672
POLYGONS 28 112
3 5 0 1
3 5 1 6
3 6 1 2
3 6 2 7
3 7 2 3
3 7 3 8
3 8 3 4
3 9 5 6
3 9 6 10
3 10 6 7
3 10 7 8
3 5 0 11
3 5 11 14
3 14 11 23
3 14 12 15
3 15 12 24
3 15 13 8
3 8 13 4
3 9 5 14
3 9 14 10
3 10 14 26
3 10 15 8
3 1 0 11
3 2 1 12
3 12 2 13
3 3 2 13
3 13 3 14
3 13 3 4
CELL_DATA 28
SCALARS Components int
LOOKUP_TABLE default
           1
           1
           1
           1
           1
           1
           1
           1
           1
           1
           1
           1
           1
           1
           1
           1
           1
           1
           1
           1
           1
           1
           1
           0
           0
           0
           0
           0
